#(C) 2010 by Fachinformationszentrum Karlsruhe. All rights reserved.
data_10000-ICSD
_database_code_ICSD 10000
_audit_creation_date 1980-01-01
_chemical_name_systematic 'Strontium germanium (1:2) - high-pressure phase'
_chemical_formula_structural 'Sr Ge2'
_chemical_formula_sum 'Ge2 Sr1'
_chemical_name_structure_type EuGe2/PtTe2
_exptl_crystal_density_diffrn 5.13
_cell_measurement_temperature 293.
#Default value included by FIZ Karlsruhe
_cell_measurement_pressure 101.325
#Default value included by FIZ Karlsruhe
_publ_section_title 'Kristallstruktur von Sr Ge2 bei hohen Drucken'
loop_
_citation_id
_citation_journal_full
_citation_year
_citation_journal_volume
_citation_page_first
_citation_page_last
_citation_journal_id_ASTM
primary
;
Zeitschrift fuer Naturforschung, Teil B. Anorganische Chemie, Organische
Chemie (33,1978-41,1986)
;
1979 34 524 524 ZNBAD2
loop_
_publ_author_name
'Evers, J.'
'Oehlinger, G.'
'Weiss, A.'
_cell_length_a 4.104(3)
_cell_length_b 4.104(3)
_cell_length_c 5.165(5)
_cell_angle_alpha 90.
_cell_angle_beta 90.
_cell_angle_gamma 120.
_cell_volume 75.34
_cell_formula_units_Z 1
_symmetry_space_group_name_H-M 'P -3 m 1'
_symmetry_Int_Tables_number 164
loop_
_symmetry_equiv_pos_site_id
_symmetry_equiv_pos_as_xyz
1 'x-y, -y, -z'
2 '-x, -x+y, -z'
3 'y, x, -z'
4 'x-y, x, -z'
5 'y, -x+y, -z'
6 '-x, -y, -z'
7 '-x+y, y, z'
8 'x, x-y, z'
9 '-y, -x, z'
10 '-x+y, -x, z'
11 '-y, x-y, z'
12 'x, y, z'
loop_
_atom_type_symbol
_atom_type_oxidation_number
Sr0+ 0
Ge0+ 0
loop_
_atom_site_label
_atom_site_type_symbol
_atom_site_symmetry_multiplicity
_atom_site_Wyckoff_symbol
_atom_site_fract_x
_atom_site_fract_y
_atom_site_fract_z
_atom_site_B_iso_or_equiv
_atom_site_occupancy
_atom_site_attached_hydrogens
Sr1 Sr0+ 1 a 0 0 0 0.0 1. 0
Ge1 Ge0+ 2 d 0.3333 0.6667 0.406 0.0 1. 0
#End of data_10000-ICSD
