#(C) 2010 by Fachinformationszentrum Karlsruhe. All rights reserved.
data_3-ICSD
_database_code_ICSD 3
_audit_creation_date 1985-08-14
_audit_update_record 2010-02-01
_chemical_name_systematic 'Lanthanum fluoride'
_chemical_formula_structural 'La F3'
_chemical_formula_sum 'F3 La1'
_chemical_name_structure_type LaF3(P3-c1)
_chemical_name_mineral Fluocerite-(La)
_exptl_crystal_density_diffrn 5.94
_cell_measurement_temperature 293.
#Default value included by FIZ Karlsruhe
_cell_measurement_pressure 101.325
#Default value included by FIZ Karlsruhe
_publ_section_title
'A powder neutron diffraction of lanthanum and cerium trifluorides'
loop_
_citation_id
_citation_journal_full
_citation_year
_citation_journal_volume
_citation_page_first
_citation_page_last
_citation_journal_id_ASTM
primary 'Acta Crystallographica B (24,1968-38,1982)' 1976 32 94 97 ACBCAR
loop_
_publ_author_name
'Cheetham, A.K.'
'Fender, B.E.F.'
'Fuess, H.'
'Wright, A.F.'
_cell_length_a 7.185
_cell_length_b 7.185
_cell_length_c 7.351
_cell_angle_alpha 90.
_cell_angle_beta 90.
_cell_angle_gamma 120.
_cell_volume 328.65
_cell_formula_units_Z 6
_symmetry_space_group_name_H-M 'P -3 c 1'
_symmetry_Int_Tables_number 165
_refine_ls_R_factor_all 0.062
loop_
_symmetry_equiv_pos_site_id
_symmetry_equiv_pos_as_xyz
1 'x-y, -y, -z+1/2'
2 '-x, -x+y, -z+1/2'
3 'y, x, -z+1/2'
4 'x-y, x, -z'
5 'y, -x+y, -z'
6 '-x, -y, -z'
7 '-x+y, y, z+1/2'
8 'x, x-y, z+1/2'
9 '-y, -x, z+1/2'
10 '-x+y, -x, z'
11 '-y, x-y, z'
12 'x, y, z'
loop_
_atom_type_symbol
_atom_type_oxidation_number
La3+ 3
F1- -1
loop_
_atom_site_label
_atom_site_type_symbol
_atom_site_symmetry_multiplicity
_atom_site_Wyckoff_symbol
_atom_site_fract_x
_atom_site_fract_y
_atom_site_fract_z
_atom_site_B_iso_or_equiv
_atom_site_occupancy
_atom_site_attached_hydrogens
La1 La3+ 6 f 0.6609(1) 0 0.25 0.23 1. 0
F1 F1- 12 g 0.3667(6) 0.0540(4) 0.0824(5) 0.7 1. 0
F2 F1- 4 d 0.3333 0.6666 0.1855(9) 0.7 1. 0
F3 F1- 2 a 0 0 0.25 0.7 1. 0
#End of data_3-ICSD
